; minim.mdp - used as input into grompp to generate em.tpr
; Parameters describing what to do, when to stop and what to save
integrator  = steep         ; Algorithm (steep = steepest descent minimization)
emtol       = 100.0        ; Stop minimization when the maximum force < 1000.0 kJ/mol/nm
emstep      = 0.01          ; Minimization step size
nsteps      = 5000         ; Maximum number of (minimization) steps to perform

; Implicit Solvent Settings
implicit_solvent         = GBSA
gb_algorithm             = Still
rgbradii                 = 1.0
coulombtype              = Cut-off
vdwtype                  = Cut-off
pbc                      = none       
